# vtk DataFile Version 3.0
array.mean0D
ASCII
DATASET STRUCTURED_POINTS
DIMENSIONS 99 39 16
ORIGIN 758.000 660.001 10.001 
SPACING 10 10 10
POINT_DATA 61776
FIELD attributes 1
UAvg 3 61776 float
4.328247	0.135625	0.017753
4.328053	0.131320	0.015800
4.327707	0.126428	0.014312
4.327506	0.121017	0.013539
4.327890	0.115177	0.013039
4.328903	0.108851	0.012256
4.330080	0.102181	0.011298
4.331050	0.095564	0.010656
4.332178	0.089159	0.010373
4.334256	0.082642	0.009961
4.337657	0.075632	0.009124
4.342048	0.068060	0.008090
4.346997	0.059971	0.007218
4.352734	0.051373	0.006635
4.359729	0.042559	0.006302
4.368132	0.033859	0.006050
4.377921	0.025218	0.005692
4.389050	0.016443	0.005116
4.401583	0.007665	0.004291
4.415508	-0.000798	0.003418
4.430459	-0.008874	0.002844
4.445528	-0.016488	0.002631
4.459831	-0.023263	0.002578
4.473246	-0.028696	0.002712
4.486518	-0.032430	0.003200
4.500452	-0.034226	0.003939
4.514912	-0.034113	0.004739
4.529141	-0.032557	0.005607
4.542728	-0.030048	0.006613
4.555556	-0.026744	0.007660
4.567486	-0.022514	0.008543
4.578289	-0.017107	0.009179
4.587567	-0.010361	0.009627
4.594873	-0.002369	0.009964
4.599918	0.006522	0.010230
4.602819	0.015830	0.010304
4.604000	0.025119	0.009935
4.603983	0.034214	0.008976
4.603001	0.043209	0.007549
4.601203	0.052161	0.005972
4.598897	0.060784	0.004509
4.596485	0.068608	0.003227
4.594092	0.075510	0.002068
4.591497	0.082097	0.001003
4.588728	0.089212	0.000031
4.586181	0.096929	-0.000804
4.584204	0.104674	-0.001407
4.582886	0.111991	-0.001833
4.582247	0.118841	-0.002294
4.582255	0.125381	-0.003021
4.582840	0.131733	-0.004068
4.583928	0.137951	-0.005333
4.585583	0.144129	-0.006740
4.587816	0.150410	-0.008106
4.590341	0.156667	-0.009171
4.592757	0.162353	-0.009763
4.594825	0.167057	-0.009755
4.596323	0.170831	-0.008984
4.596980	0.173945	-0.007382
4.596703	0.176566	-0.005217
4.595653	0.178738	-0.002901
4.594011	0.180483	-0.000749
4.591983	0.181943	0.001020
4.589754	0.183424	0.002370
4.587341	0.185098	0.003415
4.584631	0.186644	0.004184
4.581342	0.187642	0.004676
4.577106	0.188197	0.004993
4.571950	0.188756	0.005278
4.566181	0.189691	0.005701
4.559886	0.191212	0.006369
4.553250	0.193289	0.007168
4.546673	0.195546	0.007962
4.539988	0.197563	0.008801
4.532470	0.199139	0.009691
4.523972	0.200456	0.010450
4.515140	0.201779	0.010964
4.506697	0.203084	0.011419
4.498966	0.204178	0.011991
4.491908	0.205093	0.012502
4.485362	0.206064	0.012658
4.479373	0.207163	0.012336
4.474039	0.208268	0.011622
4.469236	0.209338	0.010701
4.464808	0.210471	0.009838
4.460828	0.211611	0.009236
4.457234	0.212360	0.008967
4.453825	0.212421	0.008890
4.450537	0.212061	0.008565
4.447478	0.211695	0.007676
4.444707	0.211422	0.006403
4.442290	0.211115	0.005025
4.440356	0.210662	0.003477
4.438919	0.209966	0.001705
4.437823	0.208813	0.000048
4.436948	0.207260	-0.001123
4.436333	0.205664	-0.001913
4.435944	0.204025	-0.002535
4.435577	0.202023	-0.002894
4.381344	0.118023	-0.007240
4.377526	0.113547	-0.008013
4.375302	0.108825	-0.009285
4.374633	0.103711	-0.010660
4.375335	0.098257	-0.011939
4.376686	0.092659	-0.013199
4.377766	0.087013	-0.014388
4.378483	0.081005	-0.015265
4.379609	0.074199	-0.015704
4.381925	0.066700	-0.015927
4.385408	0.059059	-0.016229
4.389607	0.051571	-0.016606
4.394324	0.043826	-0.016803
4.399447	0.035097	-0.016718
4.404926	0.025227	-0.016565
4.411127	0.014715	-0.016555
4.418469	0.004104	-0.016538
4.426842	-0.006323	-0.016243
4.436171	-0.016328	-0.015850
4.447087	-0.025581	-0.015794
4.460033	-0.033679	-0.016077
4.474245	-0.040288	-0.016311
4.488719	-0.045482	-0.016283
4.503301	-0.049739	-0.016044
4.518496	-0.053166	-0.015644
4.534679	-0.055062	-0.014940
4.551687	-0.054846	-0.013836
4.568981	-0.052849	-0.012399
4.586037	-0.049789	-0.010689
4.602431	-0.045908	-0.008747
4.617551	-0.040892	-0.006697
4.630749	-0.034326	-0.004652
4.641684	-0.026163	-0.002640
4.650284	-0.016831	-0.000655
4.656593	-0.006974	0.001248
4.660837	0.002813	0.002893
4.663461	0.012182	0.003978
4.664845	0.021209	0.004411
4.665020	0.030300	0.004464
4.664027	0.039621	0.004410
4.662059	0.048696	0.004191
4.659255	0.056871	0.003611
4.655457	0.064100	0.002791
4.650445	0.070988	0.002094
4.644619	0.078019	0.001582
4.638792	0.085030	0.001033
4.633436	0.091738	0.000343
4.628779	0.098116	-0.000465
4.625055	0.104217	-0.001494
4.622350	0.110164	-0.002939
4.620284	0.116234	-0.004814
4.618462	0.122532	-0.006943
4.616983	0.128950	-0.009141
4.616113	0.135538	-0.011294
4.616003	0.142205	-0.013374
4.616702	0.148224	-0.015356
4.617978	0.152904	-0.016932
4.619333	0.156313	-0.017604
4.620237	0.158912	-0.017122
4.620359	0.161004	-0.015692
4.619655	0.162656	-0.013606
4.618227	0.163971	-0.011036
4.616213	0.165180	-0.008146
4.613603	0.166658	-0.005033
4.610343	0.168599	-0.001760
4.606402	0.170701	0.001453
4.601683	0.172434	0.004227
4.596118	0.173518	0.006244
4.589923	0.173997	0.007394
4.583464	0.174085	0.007898
4.576847	0.173921	0.008114
4.570183	0.173518	0.008215
4.563847	0.173105	0.008207
4.557995	0.173251	0.008059
4.552207	0.174174	0.007759
4.546034	0.175443	0.007297
4.539519	0.176718	0.006689
4.533041	0.177893	0.006060
4.526760	0.178910	0.005650
4.520384	0.179794	0.005631
4.513482	0.180510	0.005995
4.505936	0.181031	0.006680
4.497971	0.181491	0.007565
4.489885	0.181973	0.008443
4.481940	0.182452	0.009191
4.474238	0.182935	0.009755
4.466547	0.183339	0.010166
4.458545	0.183509	0.010461
4.450176	0.183519	0.010444
4.441982	0.183558	0.009941
4.434526	0.183585	0.009186
4.427869	0.183510	0.008392
4.421935	0.183493	0.007267
4.416853	0.183516	0.005486
4.412624	0.183285	0.003396
4.408994	0.182717	0.001624
4.405846	0.182033	0.000219
4.403357	0.181452	-0.001179
4.401740	0.180917	-0.002640
4.487436	0.123801	-0.023581
4.479423	0.118317	-0.023912
4.471778	0.112883	-0.024385
4.464288	0.107270	-0.024425
4.457165	0.101572	-0.023792
4.450496	0.095937	-0.022798
4.444291	0.090098	-0.021881
4.438814	0.083476	-0.021090
4.434207	0.075853	-0.020199
4.430527	0.067586	-0.019161
4.427724	0.059009	-0.018158
4.425994	0.050129	-0.017381
4.425754	0.040747	-0.016868
4.426911	0.030519	-0.016545
4.428900	0.019242	-0.016351
4.431455	0.007270	-0.016104
4.434808	-0.004662	-0.015477
4.439069	-0.016248	-0.014295
4.444270	-0.027711	-0.012722
4.450700	-0.038860	-0.011096
4.458765	-0.048768	-0.009615
4.468517	-0.056776	-0.008324
4.479868	-0.063185	-0.007319
4.492850	-0.068626	-0.006778
4.507452	-0.072996	-0.006656
4.523432	-0.075600	-0.006571
4.540480	-0.076080	-0.006278
4.558295	-0.074700	-0.005859
4.576347	-0.071806	-0.005381
4.593887	-0.067300	-0.004729
4.610018	-0.060917	-0.003840
4.624055	-0.052643	-0.002898
4.635894	-0.042749	-0.002210
4.645705	-0.031748	-0.001875
4.653612	-0.020298	-0.001676
4.659755	-0.008913	-0.001360
4.664496	0.002242	-0.000964
4.668091	0.013232	-0.000605
4.670443	0.024145	-0.000100
4.671368	0.034838	0.000778
4.670824	0.044909	0.001908
4.668781	0.054093	0.002939
4.665125	0.062619	0.003775
4.659872	0.070746	0.004738
4.653329	0.078347	0.006015
4.646058	0.085216	0.007292
4.638337	0.091498	0.008142
4.630350	0.097511	0.008527
4.622354	0.103420	0.008677
4.614575	0.109272	0.008655
4.607242	0.115099	0.008164
4.600797	0.120729	0.006905
4.595680	0.126049	0.005031
4.592135	0.131337	0.002832
4.590677	0.136825	0.000252
4.591712	0.142311	-0.002878
4.594783	0.147400	-0.006291
4.599038	0.151888	-0.009477
4.603794	0.155756	-0.012216
4.608563	0.158975	-0.014569
4.613015	0.161553	-0.016498
4.616889	0.163704	-0.017806
4.619916	0.165684	-0.018194
4.621883	0.167621	-0.017446
4.623115	0.169446	-0.015779
4.624061	0.171034	-0.013667
4.624870	0.172304	-0.011487
4.625379	0.173147	-0.009525
4.625430	0.173410	-0.008048
4.625046	0.173078	-0.007108
4.624127	0.172322	-0.006468
4.622416	0.171280	-0.005896
4.619735	0.170157	-0.005339
4.616319	0.169391	-0.004903
4.612582	0.169276	-0.004696
4.608831	0.169514	-0.004796
4.605167	0.169722	-0.005183
4.601388	0.169763	-0.005586
4.597093	0.169608	-0.005704
4.592024	0.169353	-0.005504
4.585874	0.169080	-0.005079
4.578235	0.168778	-0.004301
4.569067	0.168329	-0.003079
4.558950	0.167608	-0.001689
4.548557	0.166700	-0.000434
4.538163	0.166072	0.000636
4.527888	0.166155	0.001468
4.517769	0.166853	0.001857
4.507748	0.167622	0.001747
4.497969	0.167955	0.001437
4.488445	0.167712	0.001411
4.478865	0.167142	0.001753
4.469086	0.166613	0.002177
4.459408	0.166323	0.002600
4.450217	0.166213	0.003326
4.441509	0.166067	0.004549
4.433218	0.165743	0.005889
4.425573	0.165366	0.006655
4.418993	0.165029	0.006468
4.510125	0.138045	-0.027886
4.506681	0.134150	-0.029125
4.501948	0.130160	-0.029960
4.495150	0.125295	-0.029649
4.486435	0.118971	-0.027923
4.476818	0.111386	-0.025407
4.467168	0.103095	-0.022898
4.457527	0.094342	-0.020537
4.447444	0.085064	-0.018039
4.436888	0.075189	-0.015320
4.426442	0.064597	-0.012651
4.416897	0.053200	-0.010385
4.408994	0.041120	-0.008589
4.403004	0.028580	-0.006958
4.398610	0.015661	-0.005159
4.395402	0.002406	-0.003116
4.393601	-0.011049	-0.001000
4.393754	-0.024787	0.000965
4.396138	-0.039039	0.002634
4.400612	-0.053435	0.003981
4.407308	-0.066972	0.004968
4.416969	-0.078880	0.005342
4.430146	-0.089074	0.004829
4.446660	-0.097691	0.003515
4.465934	-0.104378	0.001875
4.487246	-0.108480	0.000334
4.509864	-0.109716	-0.001015
4.533298	-0.108298	-0.002232
4.557095	-0.104468	-0.003329
4.580511	-0.098176	-0.004195
4.602516	-0.089448	-0.004793
4.622257	-0.078588	-0.005349
4.639412	-0.066000	-0.006135
4.653954	-0.052150	-0.007186
4.665874	-0.037815	-0.008260
4.675217	-0.023846	-0.009073
4.682251	-0.010589	-0.009613
4.687340	0.002152	-0.009969
4.690613	0.014784	-0.009917
4.692114	0.027319	-0.009126
4.691948	0.039288	-0.007613
4.690218	0.050382	-0.005676
4.686882	0.060780	-0.003511
4.682023	0.070650	-0.001131
4.675836	0.079844	0.001413
4.668448	0.088138	0.003952
4.659703	0.095412	0.006387
4.649319	0.101568	0.008803
4.637358	0.106765	0.011356
4.624173	0.111375	0.014021
4.610466	0.115558	0.016325
4.597099	0.119237	0.017724
4.584693	0.122544	0.018316
4.573616	0.125756	0.018477
4.564477	0.129055	0.018189
4.557587	0.132770	0.017195
4.552592	0.137021	0.015441
4.549049	0.141267	0.013024
4.546896	0.144755	0.009966
4.546324	0.147167	0.006380
4.547372	0.148832	0.002541
4.549854	0.150296	-0.001291
4.553468	0.151795	-0.004918
4.557787	0.153130	-0.008128
4.562510	0.154015	-0.010855
4.567405	0.154610	-0.013123
4.572192	0.155458	-0.014948
4.576530	0.156840	-0.016334
4.580227	0.158515	-0.017312
4.583359	0.160120	-0.017933
4.585914	0.161604	-0.018242
4.587855	0.163143	-0.018306
4.589093	0.164813	-0.018170
4.589730	0.166402	-0.017814
4.589928	0.167563	-0.017220
4.589940	0.168158	-0.016614
4.590119	0.168457	-0.016182
4.590433	0.168920	-0.015673
4.590422	0.169678	-0.014786
4.589619	0.170553	-0.013581
4.587657	0.171328	-0.012196
4.584168	0.171793	-0.010532
4.579066	0.171605	-0.008570
4.572680	0.170519	-0.006549
4.565395	0.168682	-0.004659
4.557516	0.166652	-0.002938
4.549565	0.164959	-0.001472
4.542057	0.163722	-0.000406
4.535232	0.162714	0.000256
4.529128	0.161788	0.000662
4.523584	0.160966	0.000905
4.518472	0.160148	0.000865
4.513716	0.159047	0.000466
4.509107	0.157650	0.000050
4.504374	0.156200	0.000242
4.499108	0.154697	0.001375
4.493033	0.152979	0.003107
4.486361	0.151111	0.004737
4.479621	0.149402	0.005831
4.443995	0.140383	-0.017117
4.442139	0.137296	-0.016519
4.439748	0.134506	-0.016081
4.436568	0.131295	-0.015820
4.432002	0.126616	-0.015315
4.425877	0.120187	-0.014354
4.418494	0.112523	-0.013165
4.410276	0.103957	-0.012076
4.401733	0.094303	-0.011100
4.393121	0.083390	-0.009897
4.384561	0.071380	-0.008312
4.376312	0.058473	-0.006613
4.368989	0.044728	-0.005034
4.363060	0.030199	-0.003510
4.358696	0.014939	-0.002022
4.356210	-0.001096	-0.000879
4.356222	-0.017858	-0.000434
4.359335	-0.035191	-0.000807
4.365851	-0.052817	-0.001906
4.375853	-0.070344	-0.003531
4.389472	-0.087293	-0.005470
4.407165	-0.102959	-0.007719
4.429120	-0.116548	-0.010337
4.454684	-0.127587	-0.012983
4.482647	-0.135678	-0.015031
4.511980	-0.140232	-0.016262
4.542084	-0.141017	-0.017036
4.572558	-0.138333	-0.017660
4.602823	-0.132406	-0.018139
4.631974	-0.123307	-0.018469
4.659082	-0.111414	-0.018832
4.683515	-0.097320	-0.019282
4.704996	-0.081527	-0.019568
4.723529	-0.064536	-0.019571
4.739292	-0.047165	-0.019460
4.752388	-0.030440	-0.019402
4.762906	-0.014954	-0.019404
4.770953	-0.000571	-0.019317
4.776603	0.013166	-0.018888
4.780158	0.026380	-0.018047
4.782040	0.038961	-0.017020
4.782487	0.050912	-0.016014
4.781488	0.062240	-0.015005
4.779047	0.072839	-0.013891
4.775218	0.082694	-0.012626
4.770008	0.091893	-0.011208
4.763448	0.100395	-0.009547
4.755449	0.108043	-0.007514
4.746027	0.114968	-0.005112
4.735346	0.121361	-0.002482
4.723609	0.126935	0.000098
4.710895	0.131269	0.002398
4.697158	0.134376	0.004522
4.682408	0.136506	0.006734
4.666844	0.138065	0.009165
4.650606	0.139836	0.011727
4.633838	0.142392	0.014112
4.616903	0.145467	0.015884
4.600377	0.148205	0.016760
4.584927	0.149971	0.016889
4.571079	0.150798	0.016590
4.559127	0.151123	0.015960
4.549195	0.151426	0.014916
4.541139	0.151859	0.013448
4.534679	0.152150	0.011644
4.529639	0.152183	0.009596
4.525924	0.152454	0.007246
4.523491	0.153439	0.004570
4.522097	0.155065	0.001795
4.521389	0.157027	-0.000754
4.521139	0.159018	-0.002952
4.521458	0.160900	-0.004898
4.522473	0.162725	-0.006646
4.524164	0.164606	-0.008053
4.526383	0.166440	-0.008938
4.529091	0.168032	-0.009322
4.532312	0.169447	-0.009273
4.535763	0.171110	-0.008676
4.538951	0.173291	-0.007463
4.541448	0.175742	-0.005812
4.543041	0.177982	-0.003920
4.543727	0.179781	-0.001911
4.543654	0.181068	0.000091
4.542928	0.181721	0.001958
4.541594	0.181685	0.003545
4.539879	0.180930	0.004670
4.538175	0.179377	0.005274
4.536776	0.177149	0.005493
4.535710	0.174601	0.005528
4.534907	0.172002	0.005442
4.534423	0.169403	0.005104
4.534369	0.166860	0.004441
4.534719	0.164538	0.003504
4.535439	0.162614	0.002271
4.536571	0.161004	0.000787
4.537646	0.159293	-0.000544
4.537758	0.157139	-0.001220
4.536316	0.154622	-0.001069
4.533269	0.152212	-0.000279
4.345363	0.132606	0.000965
4.341143	0.129324	0.001621
4.337094	0.125799	0.002096
4.333737	0.122176	0.001903
4.330628	0.117769	0.001337
4.327121	0.111842	0.000990
4.323344	0.104207	0.000951
4.320091	0.095014	0.000824
4.318095	0.084523	0.000291
4.317394	0.072988	-0.000536
4.317674	0.060522	-0.001411
4.318890	0.047012	-0.002292
4.321252	0.032385	-0.003229
4.324963	0.016699	-0.004242
4.330353	-0.000068	-0.005449
4.337969	-0.017900	-0.007070
4.348400	-0.036510	-0.009269
4.361784	-0.055545	-0.012022
4.377897	-0.074594	-0.014972
4.396589	-0.093229	-0.017512
4.417709	-0.111147	-0.019211
4.441223	-0.127930	-0.020238
4.467169	-0.142693	-0.021019
4.495121	-0.154475	-0.021613
4.524186	-0.162784	-0.021840
4.553923	-0.167512	-0.021829
4.584342	-0.168664	-0.021955
4.615004	-0.166174	-0.022114
4.644896	-0.159868	-0.021860
4.673020	-0.149740	-0.021198
4.698660	-0.136242	-0.020474
4.721344	-0.120086	-0.019669
4.740865	-0.102002	-0.018500
4.757277	-0.082777	-0.017010
4.770726	-0.063245	-0.015610
4.781385	-0.044128	-0.014648
4.789520	-0.025788	-0.014167
4.795595	-0.008263	-0.014026
4.800057	0.008402	-0.014092
4.803324	0.024079	-0.014383
4.805692	0.038774	-0.014972
4.807186	0.052569	-0.015813
4.807848	0.065326	-0.016764
4.807700	0.076860	-0.017636
4.806556	0.087309	-0.018181
4.804242	0.096863	-0.018324
4.800942	0.105407	-0.018153
4.796844	0.112878	-0.017647
4.791969	0.119567	-0.016669
4.786448	0.125778	-0.015197
4.780487	0.131540	-0.013465
4.774230	0.136838	-0.011881
4.767484	0.141779	-0.010718
4.759752	0.146310	-0.009810
4.750486	0.150307	-0.008633
4.739394	0.153888	-0.006794
4.726695	0.157180	-0.004400
4.713025	0.160143	-0.001956
4.698960	0.162629	0.000142
4.684594	0.164501	0.001966
4.669884	0.165787	0.003859
4.654945	0.166602	0.005888
4.640103	0.167107	0.007755
4.625852	0.167434	0.009074
4.612801	0.167545	0.009593
4.601252	0.167447	0.009317
4.591236	0.167512	0.008397
4.582837	0.168155	0.007021
4.575956	0.169317	0.005349
4.570287	0.170556	0.003523
4.565645	0.171362	0.001675
4.562065	0.171573	-0.000088
4.559509	0.171346	-0.001709
4.557845	0.170801	-0.003161
4.557072	0.169882	-0.004417
4.557228	0.168788	-0.005365
4.558026	0.168130	-0.005813
4.558947	0.168543	-0.005629
4.559816	0.170232	-0.004928
4.560728	0.172848	-0.003950
4.561614	0.175743	-0.002759
4.562215	0.178362	-0.001307
4.562248	0.180394	0.000456
4.561481	0.181689	0.002432
4.559883	0.182328	0.004326
4.557668	0.182420	0.005923
4.555028	0.181938	0.007251
4.552098	0.180966	0.008427
4.548847	0.179850	0.009463
4.545227	0.178752	0.010235
4.541208	0.177503	0.010638
4.536813	0.175996	0.010803
4.532292	0.174373	0.010945
4.528221	0.173014	0.010963
4.525369	0.172211	0.010491
4.523929	0.171763	0.009419
4.523177	0.171090	0.008237
4.522249	0.169843	0.007641
4.520684	0.168223	0.007759
4.281659	0.126192	0.008840
4.279236	0.123081	0.007331
4.277413	0.119222	0.005944
4.276861	0.115106	0.004221
4.277469	0.110381	0.002336
4.278548	0.104304	0.000869
4.279853	0.096524	0.000023
4.281659	0.087218	-0.000446
4.284256	0.076795	-0.001030
4.287838	0.065560	-0.002170
4.292594	0.053510	-0.003884
4.298539	0.040339	-0.005738
4.305394	0.025711	-0.007345
4.312999	0.009522	-0.008735
4.321669	-0.008150	-0.010139
4.331954	-0.027001	-0.011764
4.344250	-0.046418	-0.013776
4.358316	-0.065976	-0.016091
4.373937	-0.085738	-0.018216
4.391438	-0.105779	-0.019632
4.411356	-0.125690	-0.020338
4.434208	-0.144722	-0.020926
4.460301	-0.161722	-0.021908
4.489488	-0.175251	-0.023249
4.521212	-0.184438	-0.024580
4.554758	-0.189389	-0.025558
4.589204	-0.190303	-0.026009
4.623223	-0.186908	-0.025717
4.655366	-0.179040	-0.024431
4.684407	-0.167136	-0.022207
4.709557	-0.151969	-0.019448
4.730189	-0.134268	-0.016484
4.745837	-0.114799	-0.013449
4.756507	-0.094380	-0.010421
4.762634	-0.073814	-0.007619
4.764986	-0.053798	-0.005331
4.764423	-0.034784	-0.003720
4.762131	-0.016897	-0.002819
4.759151	-0.000025	-0.002553
4.756097	0.016091	-0.002809
4.753265	0.031709	-0.003443
4.750710	0.046859	-0.004217
4.748419	0.061323	-0.004927
4.746330	0.074969	-0.005552
4.744344	0.087827	-0.006132
4.742502	0.099624	-0.006774
4.740929	0.109755	-0.007594
4.739545	0.118078	-0.008539
4.738163	0.125092	-0.009387
4.736786	0.131268	-0.009973
4.735539	0.136783	-0.010337
4.734759	0.141919	-0.010675
4.734641	0.147155	-0.011161
4.734899	0.152616	-0.011753
4.735043	0.157864	-0.012211
4.734697	0.162427	-0.012276
4.733753	0.166038	-0.011878
4.732131	0.168663	-0.011137
4.729628	0.170631	-0.010302
4.726058	0.172241	-0.009656
4.721499	0.173513	-0.009201
4.716154	0.174370	-0.008772
4.710264	0.174750	-0.008388
4.704112	0.174684	-0.008135
4.697992	0.174515	-0.007990
4.691780	0.174608	-0.007846
4.685053	0.175031	-0.007521
4.677654	0.175778	-0.006813
4.669896	0.176778	-0.005817
4.662345	0.177750	-0.005032
4.655234	0.178366	-0.004850
4.648407	0.178610	-0.005189
4.641830	0.178566	-0.005811
4.635771	0.177937	-0.006654
4.630584	0.176423	-0.007689
4.626367	0.174580	-0.008625
4.622746	0.173326	-0.009026
4.619363	0.172924	-0.008744
4.616413	0.173110	-0.008100
4.614328	0.173734	-0.007558
4.613182	0.174742	-0.007224
4.612579	0.175832	-0.006909
4.611898	0.176598	-0.006378
4.610636	0.176815	-0.005514
4.608611	0.176552	-0.004364
4.605743	0.175999	-0.003021
4.602025	0.175179	-0.001601
4.597540	0.174088	-0.000248
4.592356	0.173058	0.000884
4.586643	0.172436	0.001727
4.580463	0.172078	0.002327
4.573711	0.171333	0.002814
4.566273	0.169791	0.003438
4.558201	0.167903	0.004424
4.549825	0.166489	0.005600
4.541777	0.165972	0.006373
4.534401	0.166074	0.006507
4.527912	0.166149	0.006419
4.522529	0.165934	0.006421
4.293864	0.121211	0.008103
4.288075	0.118551	0.008540
4.282488	0.114791	0.008818
4.277471	0.110531	0.008614
4.273412	0.106210	0.007641
4.269972	0.101240	0.006275
4.266364	0.094690	0.005147
4.262206	0.086287	0.004407
4.257991	0.076392	0.003516
4.254685	0.065392	0.001930
4.253065	0.053404	-0.000180
4.253214	0.040326	-0.002048
4.254500	0.025897	-0.003101
4.256025	0.009803	-0.003446
4.257508	-0.008014	-0.003655
4.259758	-0.027151	-0.004341
4.263936	-0.046985	-0.005975
4.271018	-0.067334	-0.008516
4.281827	-0.088679	-0.011323
4.297069	-0.111168	-0.013920
4.317167	-0.133830	-0.016322
4.342447	-0.155240	-0.018771
4.373022	-0.174099	-0.021440
4.408544	-0.189211	-0.024206
4.448017	-0.199683	-0.026585
4.489770	-0.205288	-0.027888
4.531782	-0.206054	-0.027663
4.572279	-0.201799	-0.025923
4.609797	-0.192582	-0.022875
4.642931	-0.179102	-0.018773
4.670611	-0.162205	-0.014108
4.692038	-0.142635	-0.009442
4.706639	-0.121299	-0.005107
4.714520	-0.099288	-0.001191
4.716563	-0.077632	0.002238
4.714159	-0.057122	0.005031
4.708692	-0.038248	0.007136
4.701564	-0.021014	0.008658
4.693831	-0.005109	0.009770
4.685968	0.009824	0.010608
4.678112	0.024130	0.011272
4.670472	0.038003	0.011846
4.663265	0.051348	0.012284
4.656660	0.064061	0.012329
4.650948	0.076101	0.011683
4.646596	0.087295	0.010254
4.643969	0.097520	0.008186
4.643093	0.106989	0.005700
4.643906	0.115932	0.002920
4.646207	0.124103	-0.000153
4.649579	0.130937	-0.003395
4.653662	0.136376	-0.006413
4.658307	0.141106	-0.008805
4.663357	0.145888	-0.010526
4.668665	0.150879	-0.011783
4.674139	0.155891	-0.012626
4.679618	0.160806	-0.012896
4.684689	0.165450	-0.012573
4.688966	0.169578	-0.012040
4.692507	0.172933	-0.011887
4.695564	0.175485	-0.012330
4.698090	0.177330	-0.013169
4.700109	0.178413	-0.014238
4.701609	0.178710	-0.015385
4.702617	0.178653	-0.016375
4.703264	0.178786	-0.016989
4.703420	0.179314	-0.017044
4.702724	0.180261	-0.016304
4.701018	0.181590	-0.014755
4.698484	0.183145	-0.012926
4.695250	0.184727	-0.011469
4.691191	0.186148	-0.010569
4.686548	0.187061	-0.010178
4.681803	0.187116	-0.010350
4.676846	0.186419	-0.010887
4.671244	0.185744	-0.011177
4.664963	0.185776	-0.010744
4.658420	0.186295	-0.009678
4.652125	0.186626	-0.008497
4.646515	0.186673	-0.007745
4.641954	0.186895	-0.007684
4.638561	0.187418	-0.008296
4.636204	0.187859	-0.009383
4.634614	0.187834	-0.010604
4.633601	0.187328	-0.011678
4.633055	0.186569	-0.012593
4.632864	0.185545	-0.013537
4.632716	0.184044	-0.014604
4.632171	0.182176	-0.015746
4.631094	0.180433	-0.016886
4.629578	0.179036	-0.018011
4.627614	0.177373	-0.019054
4.624805	0.174743	-0.019688
4.620810	0.171296	-0.019631
4.615506	0.167787	-0.019100
4.609063	0.164838	-0.018670
4.601876	0.162338	-0.018616
4.594599	0.159636	-0.018857
4.587815	0.156615	-0.019272
4.311206	0.120282	-0.006368
4.302410	0.116559	-0.003563
4.293505	0.111552	-0.000931
4.283802	0.105876	0.001434
4.273560	0.100170	0.002833
4.263127	0.094134	0.003206
4.251931	0.086901	0.003314
4.239642	0.077891	0.003519
4.226737	0.066965	0.003573
4.214026	0.054210	0.003243
4.202398	0.039995	0.002631
4.192581	0.024903	0.002107
4.184630	0.009285	0.002037
4.177990	-0.007152	0.002409
4.172518	-0.025106	0.002684
4.169287	-0.044809	0.002176
4.169987	-0.065790	0.000338
4.176320	-0.087661	-0.002961
4.189272	-0.110564	-0.007146
4.208891	-0.134514	-0.011319
4.234803	-0.158917	-0.015016
4.266729	-0.182719	-0.018318
4.304468	-0.204335	-0.021452
4.347577	-0.221873	-0.024412
4.395107	-0.233891	-0.026876
4.445668	-0.239917	-0.028458
4.497424	-0.240028	-0.028859
4.548295	-0.234219	-0.027873
4.596094	-0.222578	-0.025385
4.638682	-0.205735	-0.021550
4.674284	-0.184748	-0.016800
4.701665	-0.160910	-0.011648
4.720455	-0.135645	-0.006595
4.731265	-0.110503	-0.002061
4.735307	-0.086821	0.001698
4.734209	-0.065266	0.004572
4.729674	-0.045877	0.006624
4.723142	-0.028295	0.008101
4.715579	-0.012053	0.009302
4.707303	0.003184	0.010450
4.698096	0.017438	0.011641
4.687942	0.030519	0.012840
4.677195	0.042241	0.013899
4.666282	0.052669	0.014564
4.655708	0.061984	0.014536
4.645989	0.070320	0.013744
4.637478	0.077934	0.012376
4.630430	0.085162	0.010655
4.625033	0.092176	0.008702
4.621183	0.098901	0.006545
4.618566	0.105171	0.004192
4.616980	0.111122	0.001718
4.616439	0.117176	-0.000748
4.616984	0.123637	-0.003215
4.618358	0.130454	-0.005673
4.620176	0.137303	-0.007876
4.622375	0.143792	-0.009565
4.625145	0.149566	-0.010846
4.628589	0.154435	-0.012076
4.632469	0.158449	-0.013376
4.636245	0.161860	-0.014490
4.639556	0.164728	-0.015278
4.642517	0.166914	-0.015980
4.645238	0.168524	-0.016822
4.647814	0.169921	-0.017806
4.650460	0.171378	-0.018784
4.653211	0.173078	-0.019483
4.655810	0.175151	-0.019587
4.658036	0.177563	-0.018988
4.659679	0.180185	-0.017859
4.660741	0.182877	-0.016523
4.661341	0.185310	-0.015295
4.661669	0.187061	-0.014455
4.661744	0.188136	-0.014192
4.660901	0.188849	-0.014240
4.658392	0.189334	-0.013906
4.654338	0.189670	-0.012843
4.649611	0.189982	-0.011440
4.644705	0.190322	-0.010173
4.639452	0.190666	-0.009141
4.633806	0.191030	-0.008355
4.628303	0.191334	-0.008004
4.623630	0.191384	-0.008324
4.620006	0.191089	-0.009334
4.617388	0.190568	-0.010848
4.615809	0.190015	-0.012716
4.615165	0.189497	-0.014827
4.614952	0.188965	-0.016945
4.614587	0.188350	-0.018798
4.613794	0.187843	-0.020278
4.612774	0.187667	-0.021695
4.611960	0.187537	-0.023474
4.611379	0.186971	-0.025482
4.610710	0.185973	-0.027162
4.609659	0.184978	-0.028322
4.608223	0.184180	-0.029410
4.606730	0.183090	-0.030823
4.605021	0.181102	-0.032299
4.602439	0.178403	-0.033282
4.275929	0.117949	-0.010972
4.269186	0.112833	-0.010179
4.262515	0.107376	-0.009214
4.254783	0.101705	-0.007581
4.245776	0.095925	-0.005964
4.236274	0.089793	-0.005283
4.226486	0.082782	-0.005369
4.216250	0.074533	-0.005610
4.205521	0.064766	-0.005650
4.194098	0.052918	-0.005455
4.182112	0.038754	-0.005367
4.170320	0.022905	-0.005662
4.159574	0.006145	-0.006113
4.150625	-0.011608	-0.006636
4.144314	-0.031152	-0.007896
4.141586	-0.053056	-0.010485
4.143321	-0.077068	-0.014474
4.150861	-0.102564	-0.020032
4.165797	-0.129297	-0.027055
4.188849	-0.157262	-0.034553
4.220057	-0.185943	-0.041765
4.259109	-0.213942	-0.048668
4.305438	-0.239165	-0.055192
4.358539	-0.259370	-0.060887
4.417908	-0.272863	-0.065289
4.482459	-0.278853	-0.068152
4.549875	-0.277046	-0.069266
4.616637	-0.267377	-0.068315
4.678897	-0.250276	-0.065090
4.733297	-0.226996	-0.059764
4.777509	-0.199478	-0.052855
4.810441	-0.169923	-0.045068
4.832366	-0.140308	-0.037256
4.844781	-0.112148	-0.030238
4.849758	-0.086486	-0.024462
4.849481	-0.063748	-0.019940
4.845899	-0.043670	-0.016404
4.840448	-0.025546	-0.013538
4.834009	-0.008667	-0.011204
4.826862	0.007423	-0.009385
4.818915	0.022697	-0.007957
4.809929	0.036764	-0.006693
4.799552	0.049257	-0.005448
4.787752	0.060190	-0.004206
4.775082	0.069875	-0.003095
4.762209	0.078481	-0.002270
4.749395	0.085994	-0.001764
4.736708	0.092628	-0.001428
4.724067	0.098844	-0.001021
4.711297	0.104978	-0.000419
4.698301	0.110991	0.000310
4.685313	0.116821	0.000990
4.672746	0.122661	0.001499
4.661073	0.128744	0.001724
4.650459	0.135135	0.001579
4.640888	0.141444	0.000997
4.632516	0.146957	-0.000086
4.625387	0.151496	-0.001653
4.619433	0.155707	-0.003558
4.614310	0.160203	-0.005438
4.609622	0.164847	-0.006891
4.605325	0.169057	-0.007869
4.601494	0.172514	-0.008596
4.598133	0.175401	-0.009137
4.595256	0.177961	-0.009424
4.592703	0.180203	-0.009543
4.590247	0.182177	-0.009577
4.587858	0.184139	-0.009510
4.585711	0.186417	-0.009389
4.583679	0.189212	-0.009217
4.581518	0.192299	-0.008861
4.579307	0.195043	-0.008331
4.577246	0.197005	-0.007919
4.575609	0.198392	-0.007980
4.574480	0.199603	-0.008480
4.573408	0.200597	-0.008868
4.571717	0.201050	-0.008625
4.569280	0.200963	-0.007852
4.566158	0.200817	-0.007013
4.562306	0.200779	-0.006351
4.557864	0.200455	-0.005816
4.553322	0.199601	-0.005236
4.549140	0.198496	-0.004570
4.545267	0.197516	-0.004024
4.541484	0.196675	-0.003892
4.537823	0.195855	-0.004331
4.534371	0.195262	-0.005199
4.530983	0.195176	-0.006129
4.527513	0.195451	-0.006814
4.523913	0.195780	-0.007151
4.520297	0.196078	-0.007391
4.516772	0.196292	-0.007882
4.513212	0.196360	-0.008601
4.509489	0.196469	-0.009207
4.505920	0.196868	-0.009635
4.503010	0.197392	-0.010321
4.500981	0.197655	-0.011378
4.499211	0.197478	-0.012122
4.496878	0.196891	-0.012074
4.223071	0.110549	-0.002075
4.217064	0.106163	-0.002446
4.210315	0.102072	-0.002480
4.202398	0.098035	-0.001562
4.193468	0.093420	-0.000472
4.184493	0.087698	-0.000455
4.175767	0.080829	-0.001396
4.166760	0.073056	-0.002309
4.157280	0.064332	-0.002684
4.147441	0.054001	-0.002756
4.137361	0.041404	-0.003222
4.127316	0.026545	-0.004493
4.117646	0.009781	-0.006148
4.108946	-0.008881	-0.008129
4.102415	-0.029632	-0.011390
4.099233	-0.052732	-0.016282
4.099967	-0.078490	-0.022294
4.106029	-0.106977	-0.029580
4.119906	-0.137935	-0.038716
4.143526	-0.170744	-0.049336
4.177789	-0.204074	-0.060509
4.222951	-0.235881	-0.071581
4.278767	-0.264014	-0.082029
4.344524	-0.286685	-0.091075
4.419079	-0.302303	-0.097880
4.500348	-0.309240	-0.101835
4.584648	-0.306039	-0.102494
4.666785	-0.292254	-0.099569
4.741258	-0.269022	-0.093185
4.803750	-0.238902	-0.084036
4.851911	-0.205013	-0.073244
4.885352	-0.170329	-0.062075
4.905321	-0.137302	-0.051732
4.914520	-0.107435	-0.043139
4.916400	-0.081088	-0.036689
4.914085	-0.057773	-0.032178
4.909571	-0.036752	-0.028902
4.903762	-0.017427	-0.026105
4.897078	0.000651	-0.023536
4.889681	0.017752	-0.021422
4.881784	0.033805	-0.019880
4.873387	0.048539	-0.018631
4.864049	0.061704	-0.017347
4.853220	0.073242	-0.015886
4.840878	0.083403	-0.014266
4.827596	0.092582	-0.012521
4.813723	0.101092	-0.010696
4.799292	0.109244	-0.008845
4.784274	0.117291	-0.007065
4.768770	0.125227	-0.005518
4.752772	0.132699	-0.004273
4.736123	0.139268	-0.003172
4.718772	0.144855	-0.001946
4.701028	0.149841	-0.000478
4.683478	0.154853	0.001004
4.666794	0.160121	0.001903
4.651391	0.165234	0.001842
4.637051	0.169885	0.001146
4.623624	0.174280	0.000304
4.611196	0.178696	-0.000495
4.599914	0.182998	-0.001211
4.589813	0.186804	-0.001933
4.580756	0.189903	-0.002754
4.572537	0.192370	-0.003525
4.564969	0.194420	-0.003986
4.557732	0.196168	-0.004090
4.550451	0.197557	-0.003838
4.543102	0.198608	-0.003256
4.536058	0.199762	-0.002717
4.529631	0.201540	-0.002638
4.523737	0.203751	-0.002959
4.518237	0.205555	-0.003380
4.512982	0.206378	-0.003873
4.508143	0.206511	-0.004704
4.504133	0.206850	-0.005890
4.501039	0.207946	-0.007019
4.498329	0.209383	-0.007615
4.495319	0.210440	-0.007543